formula,Property Lattice parameter (a),Property Lattice parameter (a) units,Property Cell angle ($\gamma$),Property Cell angle ($\gamma$) units,Property Melting point,Property Melting point units,Property Crystal system,Property Lattice parameter (c),Property Lattice parameter (c) units,Property Cell angle ($\alpha$),Property Cell angle ($\alpha$) units,Property Lattice parameter (b),Property Lattice parameter (b) units,Property Cell angle ($\beta$),Property Cell angle ($\beta$) units,Property Space group number
BaF$_{4}$OTi,5.1719(2),$\AA$,90,°,,,orthorhombic,5.5178(2),$\AA$,90,°,13.7555(7),$\AA$,90,°,57
Li$_{2}$O$_{7}$P$_{2}$Pd,12.5858(9),$\AA$,90,°,,,orthorhombic,5.8116(4),$\AA$,90,°,7.4955(5),$\AA$,90,°,74
Li$_{2}$O$_{6}$TeTi,5.0743(2),$\AA$,90,°,,,orthorhombic,8.4083(4),$\AA$,90,°,4.9067(2),$\AA$,90,°,34
H$_{1.68}$Li$_{0.32}$O$_{6}$TeTi,5.0098(5),$\AA$,90,°,,,orthorhombic,8.6118(6),$\AA$,90,°,4.7020(3),$\AA$,90,°,58
H$_{1.68}$Li$_{0.32}$O$_{6}$TeTi,4.6861(1),$\AA$,90,°,,,tetragonal,8.8707(3),$\AA$,90,°,4.6861(1),$\AA$,90,°,102
Na$_{2}$O$_{7}$P$_{2}$Pd,14.693(3),$\AA$,90,°,,,monoclinic,7.922(2),$\AA$,90,°,5.8551(4),$\AA$,114.11(2),$^\circ$,15
Ba$_{3}$Cr$_{4}$F$_{20}$Na$_{2}$,7.262(4),$\AA$,90,°,,,monoclinic,5.431(2),$\AA$,90,°,20.668(8),$\AA$,90.76(1),$^\circ$,14
K$_{2}$Nb$_{2}$O$_{14}$Si$_{4}$,8.7404(8),$\AA$,90,°,,,tetragonal,8.136(1),$\AA$,90,°,8.7404(8),$\AA$,90,°,100
Cr$_{5}$F$_{26}$Na$_{3}$Sr$_{4}$,19.959(2),$\AA$,90,°,,,monoclinic,29.291(6),$\AA$,90,°,7.450(1),$\AA$,111.244(9),$^\circ$,15
Ba$_{2}$F$_{6}$OTi,11.446(2),$\AA$,90,°,,,monoclinic,7.252(2),$\AA$,90,°,9.304(2),$\AA$,126.67(2),$^\circ$,9
BaF$_{5.5}$H$_{1.5}$NbO$_{1.5}$,9.9259(5),$\AA$,90,°,,,cubic,9.9259(5),$\AA$,90,°,9.9259(5),$\AA$,90,°,205
C$_{4}$FLa$_{2}$Na$_{3}$O$_{12}$,5.083(1),$\AA$,120,°,,,hexagonal,23.034(5),$\AA$,90,°,5.083(1),$\AA$,90,°,194
CrH$_{12}$N$_{4}$O$_{4}$Pd,7.3177(11),$\AA$,90,°,,,tetragonal,15.289(3),$\AA$,90,°,7.3177(11),$\AA$,90,°,141
Ba$_{3}$F$_{8}$O$_{4}$V$_{2}$,9.945(4),$\AA$,90,°,,,orthorhombic,9.673(1),$\AA$,90,°,10.277(1),$\AA$,90,°,58
Cu$_{3}$Fe$_{4}$O$_{24}$V$_{6}$,6.600(3),$\AA$,102.28(2),$^\circ$,,,triclinic,9.759(5),$\AA$,106.08(3),$^\circ$,8.048(4),$\AA$,103.72(3),$^\circ$,2
Nd$_{4}$Ni$_{3}$O$_{8}$,3.9171(1),$\AA$,90,°,,,tetragonal,25.307(1),$\AA$,90,°,3.9171(1),$\AA$,90,°,139
AlF$_{5}$Mn,3.5837(4),$\AA$,90,°,,,orthorhombic,9.537(1),$\AA$,90,°,9.854(1),$\AA$,90,°,63
F$_{0.5}$GaH$_{4.43}$N$_{0.93}$O$_{4.57}$P,9.593(2),$\AA$,90,°,,,orthorhombic,9.981(2),$\AA$,90,°,9.742(2),$\AA$,90,°,19
AlF$_{0.675}$H$_{4.205}$N$_{0.88}$O$_{4.445}$P,9.416(8),$\AA$,90,°,,,orthorhombic,9.933(4),$\AA$,90,°,9.563(5),$\AA$,90,°,19
F$_{0.45}$Fe$_{1.21}$H$_{0.92}$O$_{4.55}$P,5.184(1),$\AA$,90,°,,,tetragonal,13.040(5),$\AA$,90,°,5.184(1),$\AA$,90,°,141
Ba$_{3}$F$_{12}$H$_{4}$Nb$_{2}$O$_{4}$,22.633(3),$\AA$,90,°,,,orthorhombic,7.748(1),$\AA$,90,°,7.804(1),$\AA$,90,°,36
Ba$_{5}$F$_{20}$HNb$_{3}$O$_{3}$,11.935(1),$\AA$,120,°,,,hexagonal,7.852(1),$\AA$,90,°,11.935(1),$\AA$,90,°,176
Cu$_{6}$Fe$_{0.9}$O$_{19}$V$_{6}$,12.9399(8),$\AA$,120,°,,,trigonal,7.1275(3),$\AA$,90,°,12.9399(8),$\AA$,90,°,148
CrCuP$_{2}$S$_{6}$,5.935(6),$\AA$,90,°,,,monoclinic,13.368(13),$\AA$,90,°,10.282(2),$\AA$,106.78(7),$^\circ$,7
H$_{12}$MoN$_{4}$O$_{4}$Pd,7.4618(4),$\AA$,90,°,,,tetragonal,15.5565(10),$\AA$,90,°,7.4618(4),$\AA$,90,°,141
Ca$_{0.5}$Cu$_{2}$Hg$_{0.4}$O$_{7}$Pr$_{1.1}$Sr$_{2}$,3.8463(4),$\AA$,90,°,,,orthorhombic,12.154(1),$\AA$,90,°,3.8018(4),$\AA$,90,°,47
BaF$_{4}$OV,7.920(1),$\AA$,90,°,,,orthorhombic,7.375(1),$\AA$,90,°,27.60799(200),$\AA$,90,°,43
FFeH$_{4}$NO$_{4}$P,12.993(3),$\AA$,90,°,,,orthorhombic,10.640(3),$\AA$,90,°,6.468(1),$\AA$,90,°,33
F$_{32}$Fe$_{7}$Na$_{7}$Sr$_{2}$,10.372(3),$\AA$,90,°,,,orthorhombic,44.98(2),$\AA$,90,°,10.805(3),$\AA$,90,°,70
Ba$_{3}$F$_{7}$O$_{3}$Sc,11.519(3),$\AA$,90,°,,,orthorhombic,5.974(1),$\AA$,90,°,13.456(3),$\AA$,90,°,63
EuF$_{3}$Na$_{2}$O$_{3}$,6.596(4),$\AA$,90,°,,,orthorhombic,14.09(1),$\AA$,90,°,10.774(4),$\AA$,90,°,61
AlF$_{5}$Fe,7.4289(8),$\AA$,90,°,,,orthorhombic,3.5574(6),$\AA$,90,°,6.203(1),$\AA$,90,°,71
CuF$_{4}$H$_{9}$NbO$_{6}$,5.590(1),$\AA$,90,°,,,monoclinic,7.544(1),$\AA$,90,°,9.978(4),$\AA$,103.36(1),$^\circ$,14
F$_{7}$Li$_{3}$Th,6.20960(8),$\AA$,90,°,,,tetragonal,12.9628(2),$\AA$,90,°,6.20960(8),$\AA$,90,°,130
F$_{7}$Li$_{3}$Th,6.21785(6),$\AA$,90,°,,,tetragonal,12.9836(2),$\AA$,90,°,6.21785(6),$\AA$,90,°,130
F$_{7}$Li$_{3}$Th,6.23010(7),$\AA$,90,°,,,tetragonal,13.0153(2),$\AA$,90,°,6.23010(7),$\AA$,90,°,130
F$_{7}$Li$_{3}$Th,6.24774(8),$\AA$,90,°,,,tetragonal,13.0604(2),$\AA$,90,°,6.24774(8),$\AA$,90,°,130
Ba$_{3}$Cu$_{2}$HgO$_{10}$SrTl$_{2}$,3.8289(1),$\AA$,90,°,,,tetragonal,41.75699(100),$\AA$,90,°,3.8289(1),$\AA$,90,°,139
Cs$_{3}$F$_{9}$Ga$_{2}$,10.945(2),$\AA$,120,°,,,hexagonal,14.756(4),$\AA$,90,°,10.945(2),$\AA$,90,°,185
H$_{45}$Mo$_{7}$N$_{15}$O$_{24}$Pd$_{3}$,10.658(1),$\AA$,90,°,,,monoclinic,17.55099(200),$\AA$,90,°,20.62799(200),$\AA$,113.038(7),$^\circ$,14
CCuFKO$_{3}$,3.972(1),$\AA$,90,°,,,orthorhombic,9.005(5),$\AA$,90,°,5.038(2),$\AA$,90,°,26
F$_{2}$NaO$_{2}$V,6.399(1),$\AA$,90,°,,,monoclinic,7.220(2),$\AA$,90,°,3.590(1),$\AA$,110.29(1),$^\circ$,4
Ba$_{7}$F$_{26.7}$Fe$_{6}$H$_{9.3}$O$_{7.3}$,17.036(2),$\AA$,90,°,,,monoclinic,7.620(2),$\AA$,90,°,11.489(1),$\AA$,101.48(1),$^\circ$,12
Ba$_{7}$F$_{32}$Fe$_{6}$H$_{4}$O$_{2}$,17.02299(100),$\AA$,90,°,,,monoclinic,7.624(1),$\AA$,90,°,11.482(1),$\AA$,101.13(1),$^\circ$,12
F$_{24}$Fe$_{3}$Pb$_{8}$,20.118(3),$\AA$,89.38(2),$^\circ$,,,triclinic,9.440(2),$\AA$,89.75(2),$^\circ$,5.597(1),$\AA$,105.79(2),$^\circ$,2
Ga$_{2}$H$_{9}$NO$_{11}$P$_{2}$,9.689(1),$\AA$,90,°,,,monoclinic,9.788(1),$\AA$,90,°,9.703(1),$\AA$,102.78(2),$^\circ$,14
Cu$_{0.975}$InP$_{2}$S$_{6}$,6.0956(4),$\AA$,90,°,,,monoclinic,13.6230(8),$\AA$,90,°,10.5645(6),$\AA$,107.101(3),$^\circ$,9
CaO$_{4}$Tl$_{2}$,3.3255(1),$\AA$,90,°,,,orthorhombic,10.479(1),$\AA$,90,°,11.022(1),$\AA$,90,°,63
Ca$_{1.88}$O$_{5}$Tl$_{2.12}$,3.3431(1),$\AA$,90,°,,,orthorhombic,13.499(1),$\AA$,90,°,11.159(1),$\AA$,90,°,63
Nb$_{2}$O$_{6.07}$Tl$_{2}$,10.6829(2),$\AA$,90,°,,,cubic,10.6829(2),$\AA$,90,°,10.6829(2),$\AA$,90,°,227
Nb$_{2}$O$_{6.271}$Tl$_{2}$,10.6418(2),$\AA$,90,°,,,cubic,10.6418(2),$\AA$,90,°,10.6418(2),$\AA$,90,°,227
Nb$_{2}$O$_{6.43}$Tl$_{2}$,10.6399(2),$\AA$,90,°,,,cubic,10.6399(2),$\AA$,90,°,10.6399(2),$\AA$,90,°,227
Nb$_{2}$O$_{6.49}$Tl$_{2}$,10.6397(2),$\AA$,90,°,,,cubic,10.6397(2),$\AA$,90,°,10.6397(2),$\AA$,90,°,227
Nb$_{2}$O$_{6.588}$Tl$_{2}$,10.6370(2),$\AA$,90,°,,,cubic,10.6370(2),$\AA$,90,°,10.6370(2),$\AA$,90,°,227
Nb$_{2}$O$_{6.648}$Tl$_{2}$,10.6313(2),$\AA$,90,°,,,cubic,10.6313(2),$\AA$,90,°,10.6313(2),$\AA$,90,°,227
Nb$_{2}$O$_{7}$Tl$_{2}$,10.6220(2),$\AA$,90,°,,,cubic,10.6220(2),$\AA$,90,°,10.6220(2),$\AA$,90,°,227
Ca$_{2.8}$O$_{6}$Tl$_{2.2}$,11.248(2),$\AA$,90,°,,,orthorhombic,3.3329(3),$\AA$,90,°,16.51299(200),$\AA$,90,°,55
Ba$_{2}$ClF$_{7}$Zn$_{2}$,7.700(2),$\AA$,90,°,,,monoclinic,8.939(2),$\AA$,90,°,5.801(2),$\AA$,106.85(2),$^\circ$,11
Ba$_{2}$ClCo$_{2}$F$_{7}$,7.692(3),$\AA$,90,°,,,monoclinic,8.945(2),$\AA$,90,°,5.783(2),$\AA$,106.88(2),$^\circ$,11
Ba$_{2}$ClF$_{7}$MnNi,7.766(3),$\AA$,90,°,,,monoclinic,8.932(4),$\AA$,90,°,5.844(1),$\AA$,106.64(1),$^\circ$,11
Ca$_{4}$O$_{9}$Tl$_{2}$,4.77944(4),$\AA$,90,°,,,tetragonal,18.21109(20),$\AA$,90,°,4.77944(4),$\AA$,90,°,139
Ba$_{3}$F$_{9}$OTa,5.9422(5),$\AA$,90,°,,,orthorhombic,5.9590(5),$\AA$,90,°,26.39499(300),$\AA$,90,°,63
BaCuF$_{2}$O$_{3}$,4.8866(6),$\AA$,90,°,,,orthorhombic,9.582(1),$\AA$,90,°,8.531(1),$\AA$,90,°,57
F$_{2}$GdKO$_{3}$,7.006(2),$\AA$,90,°,,,orthorhombic,21.86499(600),$\AA$,90,°,11.181(3),$\AA$,90,°,70
O$_{8}$W$_{2}$Zr,9.1546(2),$\AA$,90,°,,,cubic,9.1546(2),$\AA$,90,°,9.1546(2),$\AA$,90,°,198
Ba$_{5}$ClCu$_{4}$F$_{17}$,10.731(1),$\AA$,120,°,,,hexagonal,12.803(2),$\AA$,90,°,10.731(1),$\AA$,90,°,189
Al$_{6}$F$_{34}$Na$_{2}$Sr$_{7}$,16.07199(300),$\AA$,90,°,,,monoclinic,7.258(1),$\AA$,90,°,10.822(1),$\AA$,101.23(1),$^\circ$,12
Ba$_{7}$F$_{16}$Ga$_{6}$H$_{20}$O$_{18}$,16.90799(200),$\AA$,90,°,,,monoclinic,7.542(1),$\AA$,90,°,11.406(1),$\AA$,101.28(1),$^\circ$,12
F$_{34}$Fe$_{6}$Na$_{1.96}$Sr$_{6.04}$Zn,16.16699(300),$\AA$,90,°,,,monoclinic,15.090(2),$\AA$,90,°,11.013(1),$\AA$,101.72(1),$^\circ$,15
F$_{5}$Fe$_{2}$H$_{4}$O$_{2}$,7.477(1),$\AA$,90,°,,,orthorhombic,6.652(1),$\AA$,90,°,10.862(2),$\AA$,90,°,74
Ba$_{2}$CuF$_{12}$V$_{2}$,5.365(1),$\AA$,73.19(2),$^\circ$,,,triclinic,7.433(1),$\AA$,65.05(1),$^\circ$,6.950(1),$\AA$,70.26(2),$^\circ$,2
F$_{5}$Fe$_{2}$H$_{4}$O$_{2}$,7.472(1),$\AA$,90,°,,,orthorhombic,6.606(2),$\AA$,90,°,10.928(1),$\AA$,90,°,74
F$_{5}$Fe$_{2}$H$_{4}$O$_{2}$,7.469(1),$\AA$,90,°,,,orthorhombic,6.602(2),$\AA$,90,°,10.927(1),$\AA$,90,°,74
F$_{5}$Fe$_{2}$H$_{4}$O$_{2}$,7.470(1),$\AA$,90,°,,,orthorhombic,6.603(1),$\AA$,90,°,10.930(1),$\AA$,90,°,74
AlF$_{4}$Tl,5.1418(1),$\AA$,90,°,,,tetragonal,12.8070(2),$\AA$,90,°,5.1418(1),$\AA$,90,°,140
AlF$_{4}$Tl,5.1376(2),$\AA$,90,°,,,monoclinic,12.7822(3),$\AA$,90,°,5.1301(1),$\AA$,90.119(2),$^\circ$,15
AlF$_{4}$Tl,5.1138(2),$\AA$,90,°,,,monoclinic,12.6878(6),$\AA$,90,°,5.0912(2),$\AA$,90.289(7),$^\circ$,15
AlF$_{4}$Tl,5.1010(3),$\AA$,90,°,,,monoclinic,12.6324(7),$\AA$,90,°,5.0745(3),$\AA$,90.355(8),$^\circ$,15
Ba$_{2}$Cu$_{5}$F$_{14}$,18.170(2),$\AA$,90,°,,,monoclinic,10.328(1),$\AA$,90,°,6.652(1),$\AA$,117.10(1),$^\circ$,15
AlF$_{5}$H$_{16}$N$_{6}$O$_{2}$,20.04999(1000),$\AA$,90,°,,,orthorhombic,7.834(5),$\AA$,90,°,7.291(5),$\AA$,90,°,62
C$_{3}$F$_{6}$FeH$_{18}$N$_{9}$,14.130(5),$\AA$,90,°,,,cubic,14.130(5),$\AA$,90,°,14.130(5),$\AA$,90,°,205
La$_{2}$NiO$_{4}$,5.468(2),$\AA$,90,°,,,orthorhombic,12.547(3),$\AA$,90,°,5.535(2),$\AA$,90,°,50
Ba$_{2}$Cu$_{2.2}$Hg$_{1.5}$O$_{8}$Pr$_{1.3}$,3.9236(1),$\AA$,90,°,,,tetragonal,28.993(1),$\AA$,90,°,3.9236(1),$\AA$,90,°,139
Ca$_{3.06}$O$_{9}$Tl$_{3.94}$,11.118(3),$\AA$,90,°,,,monoclinic,12.287(3),$\AA$,90,°,3.341(1),$\AA$,102.88(2),$^\circ$,12
AlCaF$_{6}$Na,8.9295(9),$\AA$,120,°,,,trigonal,5.0642(2),$\AA$,90,°,8.9295(9),$\AA$,90,°,150
Al$_{7}$Ca$_{4}$F$_{33}$Na$_{4.032}$,10.781(3),$\AA$,90,°,,,cubic,10.781(3),$\AA$,90,°,10.781(3),$\AA$,90,°,229
AlCdF$_{6}$Na,12.506(1),$\AA$,90,°,,,orthorhombic,9.902(1),$\AA$,90,°,3.6406(6),$\AA$,90,°,62
Cr$_{2}$F$_{5}$,7.7526(1),$\AA$,90,°,,,monoclinic,7.4477(1),$\AA$,90,°,7.5228(1),$\AA$,124.081(1),$^\circ$,15
BaF$_{4}$Zn,4.1974(6),$\AA$,90,°,,,orthorhombic,5.8391(8),$\AA$,90,°,14.546(3),$\AA$,90,°,36
BaF$_{4}$Zn,4.1843(12),$\AA$,90,°,,,orthorhombic,5.8253(15),$\AA$,90,°,14.496(4),$\AA$,90,°,36
Cs$_{2}$O$_{15}$Si$_{6}$Zr,26.60999(1000),$\AA$,90,°,,,monoclinic,11.602(4),$\AA$,90,°,7.506(2),$\AA$,107.43(2),$^\circ$,12
F$_{34}$Fe$_{7}$Pb$_{7}$,16.375(2),$\AA$,90,°,,,monoclinic,7.615(1),$\AA$,90,°,11.233(2),$\AA$,102.67(1),$^\circ$,12
CsF$_{5}$Pd$_{2}$,6.473(2),$\AA$,90,°,,,orthorhombic,10.718(3),$\AA$,90,°,7.853(5),$\AA$,90,°,74
Cu$_{4}$Fe$_{1.12}$H$_{2}$O$_{19.6}$Pb$_{2.88}$V$_{4}$,7.525(7),$\AA$,90,°,,,orthorhombic,9.640(5),$\AA$,90,°,5.900(3),$\AA$,90,°,62
Bi$_{2}$O$_{11}$Te$_{4}$,6.9909(3),$\AA$,90,°,,,monoclinic,18.89629(80),$\AA$,90,°,7.9593(3),$\AA$,95.176(3),$^\circ$,14
Ba$_{0.86}$Ca$_{2}$In$_{6}$O$_{12}$,9.8880(1),$\AA$,120,°,,,hexagonal,3.2170(1),$\AA$,90,°,9.8880(1),$\AA$,90,°,176
Ba$_{0.83}$Ca$_{2.1}$In$_{6}$O$_{12}$,9.8880(1),$\AA$,120,°,,,trigonal,3.2170(1),$\AA$,90,°,9.8880(1),$\AA$,90,°,143
F$_{2}$FeO$_{4}$PSr,5.207(1),$\AA$,90,°,,,monoclinic,7.037(1),$\AA$,90,°,12.216(1),$\AA$,103.00(2),$^\circ$,14
Fe$_{2}$O$_{13}$V$_{4}$,8.3125(3),$\AA$,90,°,,,monoclinic,14.5768(6),$\AA$,90,°,9.4055(4),$\AA$,102.231(2),$^\circ$,14
FeLiO$_{4}$Sn,3.066(1),$\AA$,90,°,,,orthorhombic,9.874(2),$\AA$,90,°,5.066(1),$\AA$,90,°,62
Fe$_{0.75}$Li$_{1.417}$O$_{4}$Sn$_{1.083}$,3.074(1),$\AA$,90,°,,,orthorhombic,9.881(3),$\AA$,90,°,5.116(5),$\AA$,90,°,62
FeLiO$_{4}$Sn,6.012(1),$\AA$,120,°,,,hexagonal,9.776(2),$\AA$,90,°,6.012(1),$\AA$,90,°,186
Fe$_{2}$H$_{9}$NO$_{11}$P$_{2}$,9.8232(6),$\AA$,90,°,,,monoclinic,9.8716(8),$\AA$,90,°,9.7376(8),$\AA$,102.803(8),$^\circ$,14
La$_{0.597}$Li$_{0.21}$O$_{3}$Ti,3.8714(1),$\AA$,90,°,,,tetragonal,7.7789(3),$\AA$,90,°,3.8714(1),$\AA$,90,°,123
La$_{0.557}$Li$_{0.33}$O$_{3}$Ti,3.8741(1),$\AA$,90,°,,,tetragonal,7.7459(5),$\AA$,90,°,3.8741(1),$\AA$,90,°,123
La$_{0.587}$Li$_{0.24}$O$_{3}$Ti,3.87,$\AA$,90,°,,,tetragonal,7.78,$\AA$,90,°,3.87,$\AA$,90,°,123
F$_{4}$FeRb,7.6651(13),$\AA$,90,°,,,orthorhombic,6.2789(6),$\AA$,90,°,7.6316(15),$\AA$,90,°,57
Ba$_{2}$CaH$_{6}$O$_{16}$P$_{4}$,12.3872(2),$\AA$,90,°,,,monoclinic,5.4946(1),$\AA$,90,°,10.2046(1),$\AA$,100.767(1),$^\circ$,14
F$_{10}$Fe$_{2}$H$_{2}$OSr$_{2}$,7.848(2),$\AA$,90,°,,,orthorhombic,10.773(3),$\AA$,90,°,19.86699(400),$\AA$,90,°,64
Al$_{2}$O$_{3}$,4.8437(2),$\AA$,90,°,,,orthorhombic,8.9547(4),$\AA$,90,°,8.3300(3),$\AA$,90,°,33
F$_{10}$H$_{5}$O$_{2}$Yb$_{3}$,15.326(1),$\AA$,90,°,,,cubic,15.326(1),$\AA$,90,°,15.326(1),$\AA$,90,°,227
F$_{10}$H$_{2}$KOYb$_{3}$,15.339(1),$\AA$,90,°,,,cubic,15.339(1),$\AA$,90,°,15.339(1),$\AA$,90,°,227
F$_{5}$FeH$_{8}$N$_{2}$,6.3385(3),$\AA$,90,°,,,orthorhombic,11.0298(4),$\AA$,90,°,7.6191(2),$\AA$,90,°,62
F$_{5}$FeH$_{8}$N$_{2}$,6.3269(5),$\AA$,90,°,,,orthorhombic,10.9802(9),$\AA$,90,°,7.6076(2),$\AA$,90,°,62
Ba$_{2}$ClF$_{7}$Ni$_{2}$,7.602(1),$\AA$,90,°,,,monoclinic,8.788(1),$\AA$,90,°,5.766(1),$\AA$,106.72(1),$^\circ$,11
Ba$_{2}$ClF$_{7}$MnNi,7.746(1),$\AA$,90,°,,,monoclinic,8.898(1),$\AA$,90,°,5.820(1),$\AA$,106.63(1),$^\circ$,11
Ba$_{2}$ClCoF$_{7}$Fe,7.749(1),$\AA$,90,°,,,monoclinic,8.950(1),$\AA$,90,°,5.771(1),$\AA$,106.80(1),$^\circ$,11
C$_{3}$EuNa$_{3}$O$_{9}$,9.942(2),$\AA$,90,°,,,orthorhombic,7.147(2),$\AA$,90,°,11.024(3),$\AA$,90,°,40
Ba$_{4}$F$_{13}$H$_{5}$Mo$_{2}$O$_{6}$,16.49699(100),$\AA$,90,°,,,orthorhombic,11.5174(6),$\AA$,90,°,8.6939(5),$\AA$,90,°,58
AlF$_{4}$Rb,3.6586(1),$\AA$,90,°,,,tetragonal,6.3061(1),$\AA$,90,°,3.6586(1),$\AA$,90,°,123
AlF$_{4}$Rb,5.1375(1),$\AA$,90,°,,,tetragonal,6.2912(1),$\AA$,90,°,5.1375(1),$\AA$,90,°,127
AlF$_{4}$Rb,5.1227(1),$\AA$,90,°,,,tetragonal,6.2815(2),$\AA$,90,°,5.1227(1),$\AA$,90,°,127
AlF$_{4}$Rb,7.2285(2),$\AA$,90,°,,,orthorhombic,6.2624(1),$\AA$,90,°,7.2252(2),$\AA$,90,°,59
AlF$_{4}$Rb,7.2124(2),$\AA$,90,°,,,orthorhombic,6.2396(1),$\AA$,90,°,7.2073(2),$\AA$,90,°,59
F$_{2}$Ga$_{3}$H$_{10.5}$N$_{1.5}$O$_{12.5}$P$_{3}$,8.674(1),$\AA$,90,°,,,monoclinic,16.82599(300),$\AA$,90,°,10.190(2),$\AA$,94.21(2),$^\circ$,14
Al$_{2}$Ca$_{4}$H$_{22}$O$_{20}$,5.7747(14),$\AA$,81.43(2),$^\circ$,,,triclinic,9.923(3),$\AA$,64.77(2),$^\circ$,8.4689(11),$\AA$,82.75(2),$^\circ$,1
Cr$_{0.5}$Cu$_{0.5}$PS$_{3}$,5.916(1),$\AA$,90,°,,,monoclinic,13.415(5),$\AA$,90,°,10.246(2),$\AA$,107.09(3),$^\circ$,15
Cr$_{5}$Cs$_{4}$F$_{18.24}$,7.2,$\AA$,120,°,,,trigonal,10.679,$\AA$,90,°,7.2,$\AA$,90,°,164
CoCr$_{4}$Cs$_{4}$F$_{18.24}$,7.203,$\AA$,120,°,,,trigonal,10.761,$\AA$,90,°,7.203,$\AA$,90,°,164
CLa$_{2}$O$_{5}$,4.0755(6),$\AA$,120,°,,,hexagonal,15.957(1),$\AA$,90,°,4.0755(6),$\AA$,90,°,194
C$_{0.85}$La$_{2}$O$_{4.85}$,4.0852(4),$\AA$,120,°,,,hexagonal,16.2211(6),$\AA$,90,°,4.0852(4),$\AA$,90,°,194
C$_{0.74}$La$_{2}$Li$_{0.52}$O$_{4.74}$,4.0580(1),$\AA$,120,°,,,hexagonal,16.22189(10),$\AA$,90,°,4.0580(1),$\AA$,90,°,194
F$_{6}$FeH$_{12}$O$_{6}$Sn,9.826(2),$\AA$,120,°,,,trigonal,10.106(2),$\AA$,90,°,9.826(2),$\AA$,90,°,148
AlF$_{3}$,4.9305(6),$\AA$,120,°,,,trigonal,12.4462(7),$\AA$,90,°,4.9305(6),$\AA$,90,°,167
F$_{3}$V,5.168(2),$\AA$,120,°,,,trigonal,13.438(5),$\AA$,90,°,5.168(2),$\AA$,90,°,167
Cs$_{8}$Nb$_{10}$O$_{41}$Si$_{6}$,7.342(1),$\AA$,120,°,,,hexagonal,22.16599(300),$\AA$,90,°,7.342(1),$\AA$,90,°,194
BaCFO$_{6}$Sm,5.016(1),$\AA$,120,°,,,trigonal,37.94398(600),$\AA$,90,°,5.016(1),$\AA$,90,°,166
Ba$_{3}$C$_{5}$F$_{2}$La$_{2}$O$_{15}$,21.47198(600),$\AA$,90,°,,,monoclinic,13.325(3),$\AA$,90,°,5.098(2),$\AA$,94.96(3),$^\circ$,12
BaF$_{8}$Y$_{2}$,6.9829(5),$\AA$,90,°,,,monoclinic,4.2644(4),$\AA$,90,°,10.519(1),$\AA$,99.676(8),$^\circ$,12
F$_{4}$Gd$_{2}$K$_{4}$O$_{9}$,9.0268(3),$\AA$,120,°,,,trigonal,13.684(2),$\AA$,90,°,9.0268(3),$\AA$,90,°,155
F$_{3}$GaH$_{0.07}$O$_{0.07}$,7.210(1),$\AA$,90,°,,,orthorhombic,7.333(1),$\AA$,90,°,12.398(2),$\AA$,90,°,63
F$_{3}$Fe,5.362(1),$\AA$,57.94(2),$^\circ$,,,trigonal,5.362(1),$\AA$,57.94(2),$^\circ$,5.362(1),$\AA$,57.94(2),$^\circ$,167
AlF$_{5}$H$_{2}$K$_{2}$O,6.133(3),$\AA$,90,°,,,monoclinic,6.142(3),$\AA$,90,°,7.475(4),$\AA$,97.17(2),$^\circ$,11
AlF$_{5}$K$_{2}$,5.965(1),$\AA$,90,°,,,tetragonal,3.699(1),$\AA$,90,°,5.965(1),$\AA$,90,°,123
H$_{8}$N$_{2}$O$_{8}$P$_{0.96}$V$_{2.04}$,8.629(2),$\AA$,90,°,,,tetragonal,5.648(4),$\AA$,90,°,8.629(2),$\AA$,90,°,75
BaF$_{5}$FeH$_{2}$O,10.314(5),$\AA$,90,°,,,orthorhombic,13.463(7),$\AA$,90,°,7.317(4),$\AA$,90,°,60
La$_{2}$O$_{5}$Pd$_{2}$,6.703(2),$\AA$,90,°,,,tetragonal,5.630(2),$\AA$,90,°,6.703(2),$\AA$,90,°,84
La$_{2}$O$_{4}$Pd,4.055,$\AA$,90,°,,,tetragonal,12.62,$\AA$,90,°,4.055,$\AA$,90,°,139
La$_{4}$O$_{7}$Pd,13.469(1),$\AA$,90,°,,,monoclinic,9.448(1),$\AA$,90,°,4.0262(1),$\AA$,133.42(1),$^\circ$,12
BaCuF$_{7}$In,6.843(1),$\AA$,90,°,,,tetragonal,12.001(3),$\AA$,90,°,6.843(1),$\AA$,90,°,141
F$_{2}$GaHO$_{8}$P$_{2}$Sr$_{2}$,8.257(1),$\AA$,90,°,,,monoclinic,13.596(2),$\AA$,90,°,7.205(1),$\AA$,108.02(1),$^\circ$,14
F$_{2}$Fe$_{2}$HO$_{12}$P$_{3}$Sr$_{2}$,8.072(1),$\AA$,89.95(1),$^\circ$,,,triclinic,8.885(1),$\AA$,102.46(1),$^\circ$,8.794(1),$\AA$,115.95(1),$^\circ$,2
Al$_{2}$F$_{2}$O$_{8}$P$_{2}$Sr,12.026(1),$\AA$,90,°,,,orthorhombic,4.666(1),$\AA$,90,°,12.199(1),$\AA$,90,°,19
H$_{6}$Li$_{6}$O$_{21}$P$_{6}$,15.7442(2),$\AA$,120,°,,,trigonal,12.5486(2),$\AA$,90,°,15.7442(2),$\AA$,90,°,166
CoCsF$_{4}$,12.4476(6),$\AA$,90,°,,,tetragonal,12.9277(7),$\AA$,90,°,12.4476(6),$\AA$,90,°,120
CoCsF$_{4}$,12.4353(4),$\AA$,90,°,,,tetragonal,12.8612(5),$\AA$,90,°,12.4353(4),$\AA$,90,°,120
Al$_{3}$Cs$_{2}$F$_{12}$Na,7.310(3),$\AA$,57.45(1),$^\circ$,,,trigonal,7.310(3),$\AA$,57.45(1),$^\circ$,7.310(3),$\AA$,57.45(1),$^\circ$,166
FNb$_{2}$O$_{5}$Rb,10.492(5),$\AA$,90,°,,,cubic,10.492(5),$\AA$,90,°,10.492(5),$\AA$,90,°,227
FNb$_{2}$O$_{5}$Tl,10.506(5),$\AA$,90,°,,,cubic,10.506(5),$\AA$,90,°,10.506(5),$\AA$,90,°,227
CsFNb$_{2}$O$_{5}$,10.525(5),$\AA$,90,°,,,cubic,10.525(5),$\AA$,90,°,10.525(5),$\AA$,90,°,227
AlF$_{4}$Rb,5.125(2),$\AA$,90,°,,,tetragonal,6.283(2),$\AA$,90,°,5.125(2),$\AA$,90,°,127
Ba$_{2}$F$_{18}$Zn$_{7}$,7.032(2),$\AA$,116.39(2),$^\circ$,,,triclinic,7.505(2),$\AA$,94.24(2),$^\circ$,7.292(2),$\AA$,92.82(2),$^\circ$,2
BaF$_{7}$FeMn,5.5075(1),$\AA$,90,°,,,monoclinic,9.1427(2),$\AA$,90,°,10.9584(2),$\AA$,94.568(2),$^\circ$,14
CoCrF$_{6}$Rb,10.277(5),$\AA$,90,°,,,cubic,10.277(5),$\AA$,90,°,10.277(5),$\AA$,90,°,227
La$_{7}$Mo$_{7}$O$_{30}$,17.0051(2),$\AA$,120,°,,,trigonal,6.8607(1),$\AA$,90,°,17.0051(2),$\AA$,90,°,148
La$_{7}$Mo$_{7}$O$_{30}$,17.00639(20),$\AA$,120,°,,,trigonal,6.8613(1),$\AA$,90,°,17.00639(20),$\AA$,90,°,148
B$_{2}$Gd$_{2}$Na$_{2}$O$_{7}$,10.695(6),$\AA$,90,°,,,monoclinic,10.328(6),$\AA$,90,°,6.320(4),$\AA$,117.80(4),$^\circ$,14
La$_{2.25}$Li$_{2}$Nb$_{1.25}$O$_{13}$Ti$_{2.75}$,3.88,$\AA$,90,°,,,tetragonal,32.39999,$\AA$,90,°,3.88,$\AA$,90,°,139
F$_{2}$Gd$_{2}$MgNa$_{2}$O$_{12}$Si$_{4}$,5.178(3),$\AA$,90,°,,,monoclinic,14.381(4),$\AA$,90,°,7.510(2),$\AA$,90.22(2),$^\circ$,14
GaH$_{4}$O$_{6}$P,9.9260(1),$\AA$,90,°,,,orthorhombic,9.7622(1),$\AA$,90,°,8.6189(1),$\AA$,90,°,61
C$_{12}$H$_{48}$Al$_{7}$F$_{29}$N$_{8}$O$_{2}$,8.438(2),$\AA$,94.03(2),$^\circ$,,,triclinic,10.853(4),$\AA$,106.56(2),$^\circ$,10.125(2),$\AA$,96.48(4),$^\circ$,2
C$_{12}$H$_{47}$Al$_{7}$F$_{30}$N$_{8}$O,9.1111(6),$\AA$,103.035(4),$^\circ$,,,triclinic,11.3302(8),$\AA$,110.746(7),$^\circ$,10.2652(8),$\AA$,102.016(1),$^\circ$,2
C$_{16}$H$_{26}$O$_{5}$,13.7805(12),$\AA$,90,°,,,orthorhombic,8.4303(12),$\AA$,90,°,29.081(5),$\AA$,90,°,56
C$_{23}$H$_{34}$O$_{4}$Si,28.084(3),$\AA$,90,°,,,monoclinic,20.303(3),$\AA$,90,°,8.3502(7),$\AA$,98.37(2),$^\circ$,15
C$_{23}$H$_{34}$O$_{4}$Si,9.4586(17),$\AA$,70.117(11),$^\circ$,,,triclinic,12.4892(15),$\AA$,89.406(10),$^\circ$,11.1593(16),$\AA$,72.021(13),$^\circ$,2