formula,Property Lattice parameter (a),Property Lattice parameter (a) units,Property Cell angle ($\gamma$),Property Cell angle ($\gamma$) units,Property Melting point,Property Melting point units,Property Crystal system,Property Lattice parameter (c),Property Lattice parameter (c) units,Property Cell angle ($\alpha$),Property Cell angle ($\alpha$) units,Property Lattice parameter (b),Property Lattice parameter (b) units,Property Cell angle ($\beta$),Property Cell angle ($\beta$) units,Property Space group number
BaF$_{5}$GaH$_{4}$O$_{2}$,10.0626(6),$\AA$,90,°,,,monoclinic,4.9788(3),$\AA$,90,°,5.8070(1),$\AA$,103.359(7),$^\circ$,11
CaH$_{2}$Na$_{2}$O$_{8}$P$_{2}$,9.0652(3),$\AA$,90,°,,,monoclinic,5.4700(2),$\AA$,90,°,7.1468(2),$\AA$,98.782(1),$^\circ$,4
LiO$_{3}$Sb,4.9005(2),$\AA$,90,°,,,orthorhombic,5.1816(2),$\AA$,90,°,8.4892(3),$\AA$,90,°,52
H$_{0.6}$Li$_{0.4}$O$_{3}$Sb,4.7260(5),$\AA$,90,°,,,orthorhombic,5.2306(6),$\AA$,90,°,8.659(1),$\AA$,90,°,52
H$_{0.67}$Li$_{0.33}$O$_{3}$Sb,5.2526(3),$\AA$,90,°,,,monoclinic,8.6322(6),$\AA$,90,°,4.7331(3),$\AA$,90.8(5),$^\circ$,14
F$_{9}$Fe$_{2}$NaPb,7.308(3),$\AA$,90,°,,,monoclinic,7.640(3),$\AA$,90,°,12.559(5),$\AA$,93.06(2),$^\circ$,15
H$_{2}$Na$_{5}$O$_{15}$P$_{3}$V$_{2}$,6.3089(4),$\AA$,90,°,,,monoclinic,5.1172(5),$\AA$,90,°,20.10379(80),$\AA$,91.134(6),$^\circ$,8
Al$_{3}$F$_{12}$NaRb$_{2}$,12.046(6),$\AA$,90,°,,,monoclinic,7.093(4),$\AA$,90,°,6.984(4),$\AA$,125.04(4),$^\circ$,11
Al$_{3}$F$_{12}$K$_{2}$Na,11.882(7),$\AA$,90,°,,,monoclinic,6.942(4),$\AA$,90,°,6.983(4),$\AA$,125.59(3),$^\circ$,11
Li$_{6}$O$_{18}$P$_{6}$,7.9911(3),$\AA$,90,°,,,monoclinic,5.3208(2),$\AA$,90,°,17.03189(60),$\AA$,99.433(1),$^\circ$,14
AlCaF$_{6}$Na,8.7423(3),$\AA$,90,°,,,monoclinic,20.35139(90),$\AA$,90,°,5.1927(2),$\AA$,91.499(2),$^\circ$,14
Ba$_{2}$F$_{8}$Zr,9.7401(1),$\AA$,90,°,,,orthorhombic,11.8871(1),$\AA$,90,°,5.6147(1),$\AA$,90,°,62
Ba$_{2}$F$_{8}$Zr,9.7426(3),$\AA$,90,°,,,orthorhombic,11.8877(3),$\AA$,90,°,5.6157(2),$\AA$,90,°,62
Ba$_{2}$F$_{8}$Zr,9.7401(2),$\AA$,90,°,,,orthorhombic,11.8839(3),$\AA$,90,°,5.6167(1),$\AA$,90,°,62
Ba$_{2}$F$_{8}$Zr,9.7472(2),$\AA$,90,°,,,orthorhombic,11.8995(3),$\AA$,90,°,5.6173(1),$\AA$,90,°,62
F$_{8}$Pb$_{2}$Zr,10.0800(3),$\AA$,90,°,,,orthorhombic,11.6637(3),$\AA$,90,°,5.3262(1),$\AA$,90,°,62
D$_{7}$LaNi$_{5}$,5.409(2),$\AA$,120,°,,,hexagonal,8.600(1),$\AA$,90,°,5.409(2),$\AA$,90,°,186
CrF$_{6}$MnNa,8.993(1),$\AA$,120,°,,,trigonal,5.003(1),$\AA$,90,°,8.993(1),$\AA$,90,°,150
CrF$_{5}$Mn,8.586(5),$\AA$,90,°,,,monoclinic,7.381(4),$\AA$,90,°,6.291(3),$\AA$,115.46(7),$^\circ$,15
CrF$_{5}$Mn,8.856(5),$\AA$,90,°,,,monoclinic,7.381(4),$\AA$,90,°,6.291(3),$\AA$,115.46(7),$^\circ$,15
CrF$_{5}$Rb$_{2}$,7.515(5),$\AA$,90,°,,,orthorhombic,11.985(6),$\AA$,90,°,5.724(5),$\AA$,90,°,62
F$_{3}$FeK$_{0.6}$,12.750(2),$\AA$,90,°,,,orthorhombic,3.986(2),$\AA$,90,°,12.637(2),$\AA$,90,°,32
FNb$_{2}$O$_{5}$Tl,10.506(3),$\AA$,90,°,,,cubic,10.506(3),$\AA$,90,°,10.506(3),$\AA$,90,°,227
Al$_{1.5}$CsF$_{6}$Na$_{0.5}$,7.310(3),$\AA$,57.43,°,,,trigonal,7.31,$\AA$,57.43(10),$^\circ$,7.31,$\AA$,57.43,°,166
Al$_{1.5}$CsF$_{6}$Li$_{0.5}$,7.106(3),$\AA$,58.8,°,,,trigonal,7.106,$\AA$,58.8(1),$^\circ$,7.106,$\AA$,58.8,°,166
AlF$_{4}$K,5.043(2),$\AA$,90,°,,,tetragonal,6.164(6),$\AA$,90,°,5.043(2),$\AA$,90,°,127
F$_{6}$Li$_{2}$Ti,4.630(5),$\AA$,90,°,,,tetragonal,8.935(10),$\AA$,90,°,4.630(5),$\AA$,90,°,136
Ba$_{2}$F$_{10}$Ni$_{3}$,18.542(7),$\AA$,90,°,,,monoclinic,7.821(3),$\AA$,90,°,5.958(2),$\AA$,111.92(10),$^\circ$,12
F$_{2}$NbO$_{4}$TiTl,10.365(3),$\AA$,90,°,,,cubic,10.365(3),$\AA$,90,°,10.365(3),$\AA$,90,°,227
FO$_{5}$TiTlW,10.241(3),$\AA$,90,°,,,cubic,10.241(3),$\AA$,90,°,10.241(3),$\AA$,90,°,227
FNb$_{2}$O$_{5}$Rb,10.492(3),$\AA$,90,°,,,cubic,10.492(3),$\AA$,90,°,10.492(3),$\AA$,90,°,227
CsFNb$_{2}$O$_{5}$,10.525(3),$\AA$,90,°,,,cubic,10.525(3),$\AA$,90,°,10.525(3),$\AA$,90,°,227
F$_{6}$Fe$_{2}$H$_{4}$N,7.045(4),$\AA$,90,°,,,orthorhombic,10.116(6),$\AA$,90,°,7.454(4),$\AA$,90,°,62
AlF$_{4}$Rb,11.666(5),$\AA$,90,°,,,tetragonal,12.551(6),$\AA$,90,°,11.666(5),$\AA$,90,°,120
F$_{12}$Li$_{3}$Na$_{3}$Sc$_{2}$,12.607(3),$\AA$,90,°,,,cubic,12.607(3),$\AA$,90,°,12.607(3),$\AA$,90,°,230
F$_{12}$In$_{2}$Li$_{3}$Na$_{3}$,12.693(3),$\AA$,90,°,,,cubic,12.693(3),$\AA$,90,°,12.693(3),$\AA$,90,°,230
F$_{6}$Fe$_{2}$Li,4.673(5),$\AA$,90,°,,,tetragonal,9.29(2),$\AA$,90,°,4.673(5),$\AA$,90,°,136
F$_{3}$FeNa$_{0.11}$,5.372(2),$\AA$,58.85(5),$^\circ$,,,trigonal,5.372(2),$\AA$,58.85(5),$^\circ$,5.372(2),$\AA$,58.85(5),$^\circ$,167
FeLi$_{3}$O$_{8}$Sb$_{2}$,9.017(4),$\AA$,90,°,,,orthorhombic,9.841(4),$\AA$,90,°,5.013(2),$\AA$,90,°,62
AlF$_{5}$H$_{4}$Hg$_{2}$O$_{2}$,9.353(5),$\AA$,90,°,,,tetragonal,7.241(6),$\AA$,90,°,9.353(5),$\AA$,90,°,108
AlF$_{4}$H$_{4}$N,5.0875(1),$\AA$,90,°,,,tetragonal,12.7319(4),$\AA$,90,°,5.0875(1),$\AA$,90,°,140
AlF$_{4}$H$_{4}$N,5.0564(1),$\AA$,90,°,,,tetragonal,12.7113(2),$\AA$,90,°,5.0564(1),$\AA$,90,°,135
F$_{6}$FeLiMn,8.684(2),$\AA$,120,°,,,trigonal,4.657(1),$\AA$,90,°,8.684(2),$\AA$,90,°,150
F$_{6}$FeLiMn,8.723(2),$\AA$,120,°,,,trigonal,4.745(1),$\AA$,90,°,8.723(2),$\AA$,90,°,150
F$_{3}$FeH$_{0.66}$O$_{0.33}$,7.423(3),$\AA$,90,°,,,orthorhombic,7.526(3),$\AA$,90,°,12.730(4),$\AA$,90,°,63
F$_{6}$FeH$_{4}$MnN,7.844(4),$\AA$,90,°,,,orthorhombic,10.582(6),$\AA$,90,°,12.819(8),$\AA$,90,°,30
HNbO$_{3}$,7.645(2),$\AA$,90,°,,,cubic,7.645(2),$\AA$,90,°,7.645(2),$\AA$,90,°,204
Ag$_{0.5}$Cr$_{0.5}$PS$_{3}$,5.892(3),$\AA$,90,°,,,monoclinic,6.745(4),$\AA$,90,°,10.632(4),$\AA$,105.88(4),$^\circ$,13
F$_{8}$Fe$_{3}$H$_{4}$O$_{2}$,7.609(5),$\AA$,90,°,,,monoclinic,7.453(4),$\AA$,90,°,7.514(6),$\AA$,118.21(3),$^\circ$,12
Ca$_{3}$Mn$_{3}$O$_{8.02}$,5.332(2),$\AA$,90,°,,,orthorhombic,5.455(2),$\AA$,90,°,11.13(4),$\AA$,90,°,28
B$_{2}$F$_{8}$Sr,9.55(1),$\AA$,90,°,,,,13.80(1),$\AA$,90,°,9.23(1),$\AA$,90,°,
Fe$_{4}$Li$_{4.66}$O$_{16}$Sb$_{2}$Sn$_{1.32}$,5.950(2),$\AA$,120,°,,,hexagonal,9.701(4),$\AA$,90,°,5.950(2),$\AA$,90,°,186
Fe$_{2}$Li$_{2.33}$O$_{8}$SbSn$_{0.66}$,3.031(1),$\AA$,90,°,,,orthorhombic,9.798(6),$\AA$,90,°,5.045(2),$\AA$,90,°,62
AlF$_{4}$Tl,3.616(3),$\AA$,90,°,,,tetragonal,6.366(3),$\AA$,90,°,3.616(3),$\AA$,90,°,123
AlF$_{4}$H$_{4}$N,5.078(2),$\AA$,90,°,,,tetragonal,12.715(4),$\AA$,90,°,5.078(2),$\AA$,90,°,120
AlF$_{5}$H$_{2}$ORb$_{2}$,9.604(4),$\AA$,90,°,,,orthorhombic,7.542(2),$\AA$,90,°,8.379(4),$\AA$,90,°,63
Ba$_{2}$CoF$_{9}$Fe,7.486(3),$\AA$,90,°,,,monoclinic,5.687(2),$\AA$,90,°,17.757(6),$\AA$,90.87(10),$^\circ$,14
F$_{5}$FeH$_{4}$HgO$_{2}$,10.711(2),$\AA$,90,°,,,orthorhombic,4.008(1),$\AA$,90,°,6.638(1),$\AA$,90,°,55
BaCr$_{2}$F$_{9}$Na,7.38(2),$\AA$,90,°,,,monoclinic,5.398(1),$\AA$,90,°,17.311(4),$\AA$,91.14(3),$^\circ$,14
BaCr$_{2}$F$_{9}$Na,7.318(2),$\AA$,90,°,,,monoclinic,5.398(1),$\AA$,90,°,17.311(4),$\AA$,91.14(3),$^\circ$,14
BaF$_{9}$Fe$_{2}$Na,7.363(2),$\AA$,90,°,,,monoclinic,5.484(1),$\AA$,90,°,17.527(4),$\AA$,91.50(5),$^\circ$,14
F$_{4}$FeH$_{4}$N,7.559(4),$\AA$,90,°,,,orthorhombic,12.754(8),$\AA$,90,°,7.575(4),$\AA$,90,°,62
AlF$_{4}$K,5.0449(3),$\AA$,90,°,,,tetragonal,6.1592(4),$\AA$,90,°,5.0449(3),$\AA$,90,°,127
AlF$_{4}$K,7.3403(2),$\AA$,90,°,,,monoclinic,6.4070(2),$\AA$,90,°,7.2370(2),$\AA$,106.801(4),$^\circ$,11
F$_{12}$Li$_{3}$Na$_{3}$Ti$_{2}$,12.498(3),$\AA$,90,°,,,cubic,12.498(3),$\AA$,90,°,12.498(3),$\AA$,90,°,230
F$_{12}$Li$_{3}$Na$_{3}$V$_{2}$,12.409(3),$\AA$,90,°,,,cubic,12.409(3),$\AA$,90,°,12.409(3),$\AA$,90,°,230
Cr$_{2}$F$_{12}$Li$_{3}$Na$_{3}$,12.328(2),$\AA$,90,°,,,cubic,12.328(2),$\AA$,90,°,12.328(2),$\AA$,90,°,230
F$_{12}$Fe$_{2}$Li$_{3}$Na$_{3}$,12.393(2),$\AA$,90,°,,,cubic,12.393(2),$\AA$,90,°,12.393(2),$\AA$,90,°,230
Co$_{2}$F$_{12}$Li$_{3}$Na$_{3}$,12.326(2),$\AA$,90,°,,,cubic,12.326(2),$\AA$,90,°,12.326(2),$\AA$,90,°,230
Ba$_{6}$Cu$_{11}$F$_{34}$,7.490(1),$\AA$,70.42(2),$^\circ$,,,triclinic,10.271(3),$\AA$,82.98(2),$^\circ$,10.031(2),$\AA$,73.88(2),$^\circ$,2
BaCuF$_{7}$Fe,10.695(2),$\AA$,90,°,,,monoclinic,5.654(1),$\AA$,90,°,9.932(2),$\AA$,118.53(2),$^\circ$,15
BaCuF$_{7}$Fe,10.695(2),$\AA$,90,°,,,monoclinic,5.654(1),$\AA$,90,°,9.932(2),$\AA$,118.53(2),$^\circ$,9
Ba$_{6}$F$_{26}$Zn$_{7}$,19.46(1),$\AA$,90,°,,,monoclinic,12.243(5),$\AA$,90,°,5.956(2),$\AA$,128.88(1),$^\circ$,12
F$_{5}$FeH$_{4}$Hg$_{2}$O$_{3}$,7.505(1),$\AA$,90,°,,,orthorhombic,3.941(2),$\AA$,90,°,11.823(3),$\AA$,90,°,65
BaF$_{9}$Fe$_{2}$Na,7.3236(3),$\AA$,90,°,,,monoclinic,5.4586(2),$\AA$,90,°,17.4525(7),$\AA$,91.840(3),$^\circ$,14
Ba$_{7}$CuF$_{34}$Fe$_{6}$,16.982(3),$\AA$,90,°,,,monoclinic,7.663(1),$\AA$,90,°,11.372(2),$\AA$,101.47(1),$^\circ$,12
AlF$_{4}$Tl,3.6587,$\AA$,90,°,,,tetragonal,6.4378,$\AA$,90,°,3.6587,$\AA$,90,°,123
AlF$_{4}$Tl,3.6492,$\AA$,90,°,,,tetragonal,6.4137,$\AA$,90,°,3.6492,$\AA$,90,°,123
D$_{4}$F$_{6}$FeMnN,10.5276(4),$\AA$,90,°,,,orthorhombic,12.8156(4),$\AA$,90,°,7.7970(2),$\AA$,90,°,30
D$_{4}$F$_{6}$FeMnN,7.7947(3),$\AA$,90,°,,,orthorhombic,10.5244(4),$\AA$,90,°,12.8133(5),$\AA$,90,°,60
F$_{5}$FeH$_{4}$MnO$_{2}$,7.5635(2),$\AA$,90,°,,,orthorhombic,6.7319(2),$\AA$,90,°,10.901(1),$\AA$,90,°,74
F$_{3}$Fe,10.325(2),$\AA$,90,°,,,cubic,10.325(2),$\AA$,90,°,10.325(2),$\AA$,90,°,227
Ag$_{0.5}$In$_{0.5}$PS$_{3}$,6.182(2),$\AA$,120,°,,,trigonal,12.957(2),$\AA$,90,°,6.182(2),$\AA$,90,°,163
F$_{5}$FeH$_{4}$MnO$_{2}$,7.475(1),$\AA$,90,°,,,orthorhombic,6.594(1),$\AA$,90,°,10.766(1),$\AA$,90,°,44
F$_{5}$FeH$_{4}$O$_{2}$Zn,7.451(1),$\AA$,90,°,,,orthorhombic,6.524(1),$\AA$,90,°,10.747(1),$\AA$,90,°,44
Cu$_{3}$F$_{7}$Na,12.124(6),$\AA$,90,°,,,monoclinic,6.924(4),$\AA$,90,°,7.344(4),$\AA$,120.59(4),$^\circ$,15
BaCuFeO$_{5}$Y,3.867,$\AA$,90,°,,,tetragonal,7.656,$\AA$,90,°,3.867,$\AA$,90,°,99
F$_{5}$FeH$_{10}$N$_{2}$O,10.491(4),$\AA$,90,°,,,orthorhombic,7.997(3),$\AA$,90,°,8.090(3),$\AA$,90,°,60
Al$_{2}$Ca$_{3}$F$_{14}$Na$_{2}$,10.257(1),$\AA$,90,°,,,cubic,10.257(1),$\AA$,90,°,10.257(1),$\AA$,90,°,199
CrF$_{7}$Na$_{2}$Ni,7.183(1),$\AA$,90,°,,,orthorhombic,7.414(1),$\AA$,90,°,10.224(1),$\AA$,90,°,74
AlF$_{3}$,6.931(3),$\AA$,90,°,,,orthorhombic,7.134(2),$\AA$,90,°,12.002(6),$\AA$,90,°,63
F$_{6}$Fe$_{2}$Li,4.679(1),$\AA$,90,°,,,tetragonal,9.324(2),$\AA$,90,°,4.679(1),$\AA$,90,°,102
H$_{4}$O$_{7}$Sb$_{2}$,10.365(2),$\AA$,90,°,,,cubic,10.365(2),$\AA$,90,°,10.365(2),$\AA$,90,°,227
H$_{3}$O$_{7}$SbW,10.281(2),$\AA$,90,°,,,cubic,10.281(2),$\AA$,90,°,10.281(2),$\AA$,90,°,227
BaO$_{5}$PdY$_{2}$,6.523(2),$\AA$,90,°,,,tetragonal,5.831(2),$\AA$,90,°,6.523(2),$\AA$,90,°,127
F$_{6}$FeNb,5.4201(8),$\AA$,120,°,,,trigonal,14.072(2),$\AA$,90,°,5.4201(8),$\AA$,90,°,148
F$_{6}$FeNb,5.3942(7),$\AA$,120,°,,,trigonal,14.1457(23),$\AA$,90,°,5.3942(7),$\AA$,90,°,148
F$_{6}$FeNb,7.793(1),$\AA$,86.138(9),$^\circ$,,,triclinic,7.7435(12),$\AA$,86.585(12),$^\circ$,7.7398(12),$\AA$,87.046(8),$^\circ$,2
F$_{6}$FeNb,7.7994(8),$\AA$,85.687(7),$^\circ$,,,triclinic,7.7206(10),$\AA$,86.483(9),$^\circ$,7.7143(12),$\AA$,86.968(8),$^\circ$,2
F$_{5}$FeH$_{4}$O$_{2}$Zn,7.475(1),$\AA$,90,°,,,orthorhombic,6.594(1),$\AA$,90,°,10.766(1),$\AA$,90,°,74
Ba$_{2}$F$_{18}$Ni$_{7}$,6.937(2),$\AA$,115.86(2),$^\circ$,,,triclinic,7.456(2),$\AA$,94.37(2),$^\circ$,7.229(2),$\AA$,93.16(2),$^\circ$,2
Ba$_{2}$F$_{18}$Ni$_{7}$,6.924(9),$\AA$,115.82(9),$^\circ$,,,triclinic,7.437(13),$\AA$,94.39(12),$^\circ$,7.218(10),$\AA$,93.20(13),$^\circ$,2
La$_{1.9}$NiO$_{3.93}$,3.869(1),$\AA$,90,°,,,tetragonal,12.664(3),$\AA$,90,°,3.869(1),$\AA$,90,°,139
CuLiO$_{4}$V,5.662(1),$\AA$,90,°,,,orthorhombic,8.758(2),$\AA$,90,°,5.809(1),$\AA$,90,°,74
CuF$_{8}$Fe$_{2}$H$_{4}$O$_{2}$,7.541(3),$\AA$,90,°,,,monoclinic,13.027(7),$\AA$,90,°,7.501(3),$\AA$,90.52(4),$^\circ$,15
Cu$_{3}$H$_{2}$O$_{9}$V$_{2}$,7.444(1),$\AA$,90,°,,,monoclinic,7.759(1),$\AA$,90,°,6.658(1),$\AA$,93.57(1),$^\circ$,11
CuH$_{4}$O$_{8}$V$_{2}$,5.617(1),$\AA$,90,°,,,monoclinic,11.333(2),$\AA$,90,°,5.595(1),$\AA$,91.04(1),$^\circ$,13
O$_{8}$TlV$_{3}$,7.780(2),$\AA$,90,°,,,monoclinic,4.993(1),$\AA$,90,°,8.423(3),$\AA$,96.48(2),$^\circ$,11
F$_{4}$Li$_{2}$Ni,8.318(3),$\AA$,90,°,,,cubic,8.318(3),$\AA$,90,°,8.318(3),$\AA$,90,°,227
F$_{7}$FeNa$_{2}$Ni,7.2338(3),$\AA$,90,°,,,orthorhombic,7.4529(3),$\AA$,90,°,10.3050(3),$\AA$,90,°,74
F$_{7}$FeNa$_{2}$Ni,7.203(1),$\AA$,90,°,,,orthorhombic,7.429(1),$\AA$,90,°,10.255(1),$\AA$,90,°,74
F$_{7}$FeNa$_{2}$Ni,7.203(1),$\AA$,90,°,,,orthorhombic,7.429(1),$\AA$,90,°,10.256(1),$\AA$,90,°,74
CoF$_{4}$Li,5.4354(7),$\AA$,90,°,,,monoclinic,5.5392(7),$\AA$,90,°,4.6527(6),$\AA$,114.117(8),$^\circ$,14
CoF$_{4}$Li,5.4296(8),$\AA$,90,°,,,monoclinic,5.5371(4),$\AA$,90,°,4.6462(4),$\AA$,114.244(5),$^\circ$,14
AlF$_{5}$H$_{2}$K$_{2}$O,9.200(3),$\AA$,90,°,,,orthorhombic,7.486(3),$\AA$,90,°,8.119(4),$\AA$,90,°,63
Al$_{2}$ClF$_{25}$Sr$_{10}$,16.4209(3),$\AA$,90,°,,,cubic,16.4209(3),$\AA$,90,°,16.4209(3),$\AA$,90,°,227
Cu$_{0.9}$La$_{2}$Li$_{0.1}$O$_{3.97}$,5.3813(1),$\AA$,90,°,,,orthorhombic,13.1028(1),$\AA$,90,°,5.3192(1),$\AA$,90,°,64
Cu$_{0.85}$La$_{2}$Li$_{0.15}$O$_{3.97}$,5.3617(1),$\AA$,90,°,,,orthorhombic,13.1066(1),$\AA$,90,°,5.3147(1),$\AA$,90,°,64
Cu$_{0.75}$La$_{2}$Li$_{0.25}$O$_{3.98}$,5.3177(1),$\AA$,90,°,,,orthorhombic,13.1218(2),$\AA$,90,°,5.3032(1),$\AA$,90,°,64
Cu$_{0.54}$La$_{2}$Li$_{0.46}$O$_{4}$,5.2636(2),$\AA$,90,°,,,orthorhombic,13.1460(2),$\AA$,90,°,5.2580(2),$\AA$,90,°,65
Cu$_{0.5}$La$_{2}$Li$_{0.5}$O$_{4}$,5.2517(9),$\AA$,90,°,,,orthorhombic,13.1539(3),$\AA$,90,°,5.251(1),$\AA$,90,°,65
BaCr$_{3}$CsF$_{12}$,17.184(4),$\AA$,90,°,,,monoclinic,15.037(5),$\AA$,90,°,9.886(2),$\AA$,124.32(2),$^\circ$,15
Mo$_{10}$O$_{34}$Tl$_{8}$,7.703(5),$\AA$,99.81(5),$^\circ$,,,triclinic,12.216(7),$\AA$,97.68(5),$^\circ$,10.703(7),$\AA$,118.76(5),$^\circ$,2
H$_{32}$Mo$_{10}$N$_{8}$O$_{34}$,7.750(1),$\AA$,99.18(1),$^\circ$,,,triclinic,12.421(1),$\AA$,98.52(1),$^\circ$,11.038(1),$\AA$,119.87(1),$^\circ$,2
F$_{4}$GaK,12.211(7),$\AA$,90,°,,,orthorhombic,7.635(3),$\AA$,90,°,7.496(2),$\AA$,90,°,62
AlF$_{4}$H$_{3.72}$N$_{0.93}$Rb$_{0.07}$,5.0881(2),$\AA$,90,°,,,tetragonal,12.7245(4),$\AA$,90,°,5.0881(2),$\AA$,90,°,140
AlF$_{4}$H$_{3.6}$N$_{0.9}$Rb$_{0.1}$,5.0893(1),$\AA$,90,°,,,tetragonal,12.7177(3),$\AA$,90,°,5.0893(1),$\AA$,90,°,140
AlF$_{4}$H$_{3.88}$N$_{0.97}$Rb$_{0.03}$,5.0569(1),$\AA$,90,°,,,tetragonal,12.7091(3),$\AA$,90,°,5.0569(1),$\AA$,90,°,135
AlF$_{4}$H$_{3.72}$N$_{0.93}$Rb$_{0.07}$,5.0579(1),$\AA$,90,°,,,tetragonal,12.7003(2),$\AA$,90,°,5.0579(1),$\AA$,90,°,140
AlF$_{4}$H$_{3.6}$N$_{0.9}$Rb$_{0.1}$,5.060(1),$\AA$,90,°,,,tetragonal,12.6977(3),$\AA$,90,°,5.060(1),$\AA$,90,°,140
Ba$_{7}$CuF$_{34}$Fe$_{6}$,16.892(4),$\AA$,90,°,,,monoclinic,7.646(2),$\AA$,90,°,11.331(1),$\AA$,101.75(2),$^\circ$,12
H$_{0.6}$Nb$_{0.6}$O$_{3}$W$_{0.4}$,7.5875(2),$\AA$,90,°,,,cubic,7.5875(2),$\AA$,90,°,7.5875(2),$\AA$,90,°,204
La$_{2}$O$_{2}$S$_{2}$,13.215(2),$\AA$,90,°,,,orthorhombic,5.938(1),$\AA$,90,°,5.943(1),$\AA$,90,°,64
CsO$_{8}$PSb$_{2}$,18.165(4),$\AA$,90,°,,,monoclinic,13.677(4),$\AA$,90,°,7.154(2),$\AA$,120.42(1),$^\circ$,12
H$_{8}$Mo$_{4}$N$_{2}$O$_{13}$,7.647(3),$\AA$,90,°,,,orthorhombic,18.994(8),$\AA$,90,°,15.414(7),$\AA$,90,°,61
H$_{8}$Mo$_{4}$N$_{2}$O$_{13}$,8.264(4),$\AA$,109.67(2),$^\circ$,,,triclinic,10.245(5),$\AA$,104.61(2),$^\circ$,8.344(4),$\AA$,106.05(2),$^\circ$,2
Ba$_{2}$CuO$_{8}$PtY$_{2}$,13.207(2),$\AA$,90,°,,,orthorhombic,10.321(2),$\AA$,90,°,5.680(2),$\AA$,90,°,62
Bi$_{2}$CaCu$_{2}$O$_{8}$Sr$_{2}$,5.4054,$\AA$,90,°,,,orthorhombic,30.7152,$\AA$,90,°,5.4016,$\AA$,90,°,66
O$_{8}$P$_{2}$SrZn$_{2}$,8.3232(4),$\AA$,90,°,,,monoclinic,9.0317(4),$\AA$,90,°,9.5101(4),$\AA$,92.293(3),$^\circ$,14
Cs$_{4}$Nb$_{2}$O$_{23}$Si$_{8}$,7.016(2),$\AA$,72.02(2),$^\circ$,,,triclinic,11.066(2),$\AA$,77.16(2),$^\circ$,7.840(2),$\AA$,89.95(2),$^\circ$,2
AlBa$_{3}$F$_{9}$,19.706(2),$\AA$,90,°,,,orthorhombic,15.173(2),$\AA$,90,°,5.599(1),$\AA$,90,°,62
CrF$_{8}$NaSr$_{2}$,7.7388(6),$\AA$,90,°,,,monoclinic,14.827(2),$\AA$,90,°,6.2756(5),$\AA$,112.03(1),$^\circ$,14
NiO$_{3}$Pr,5.4146(1),$\AA$,90,°,,,orthorhombic,7.6199(2),$\AA$,90,°,5.3757(1),$\AA$,90,°,62
NiO$_{3}$Pr,5.4294(1),$\AA$,90,°,,,orthorhombic,7.6362(2),$\AA$,90,°,5.3849(1),$\AA$,90,°,62
NiO$_{3}$Pr,5.4456(1),$\AA$,90,°,,,orthorhombic,7.6520(2),$\AA$,90,°,5.3952(1),$\AA$,90,°,62
NiO$_{3}$Pr,5.4577(1),$\AA$,120,°,,,trigonal,13.1058(3),$\AA$,90,°,5.4577(1),$\AA$,90,°,167
NiO$_{3}$Pr,5.4614(1),$\AA$,120,°,,,trigonal,13.1319(2),$\AA$,90,°,5.4614(1),$\AA$,90,°,167
CrF$_{7}$MnNa$_{2}$,7.421(3),$\AA$,120,°,,,trigonal,18.166(6),$\AA$,90,°,7.421(3),$\AA$,90,°,152
F$_{7}$GaMnNa$_{2}$,7.401(1),$\AA$,120,°,,,trigonal,18.091(2),$\AA$,90,°,7.401(1),$\AA$,90,°,152
BaCu$_{3}$F$_{12}$Na$_{4}$,16.135(2),$\AA$,90,°,,,cubic,16.135(2),$\AA$,90,°,16.135(2),$\AA$,90,°,206
KO$_{5}$SbSi,13.005(1),$\AA$,90,°,,,orthorhombic,10.614(1),$\AA$,90,°,6.4748(6),$\AA$,90,°,33
AlF$_{6}$H$_{6}$KO$_{2}$,8.6472(2),$\AA$,90,°,,,cubic,8.6472(2),$\AA$,90,°,8.6472(2),$\AA$,90,°,205
AlCaF$_{5}$,8.712(3),$\AA$,90,°,,,monoclinic,7.349(3),$\AA$,90,°,6.317(2),$\AA$,115.04(3),$^\circ$,15
NiO$_{3}$Pr,5.4145(3),$\AA$,90,°,,,orthorhombic,7.6206(4),$\AA$,90,°,5.3753(2),$\AA$,90,°,62
NiO$_{3}$Pr,5.4154(1),$\AA$,90,°,,,orthorhombic,7.6192(2),$\AA$,90,°,5.3755(1),$\AA$,90,°,62
NdNiO$_{3}$,5.3888(2),$\AA$,90,°,,,orthorhombic,7.6127(2),$\AA$,90,°,5.3845(1),$\AA$,90,°,62
NiO$_{3}$Sm,5.3283(1),$\AA$,90,°,,,orthorhombic,7.5675(2),$\AA$,90,°,5.4374(1),$\AA$,90,°,62
CrF$_{6}$NaSr,5.5676(3),$\AA$,90,°,,,monoclinic,9.5858(5),$\AA$,90,°,9.2937(7),$\AA$,93.201(6),$^\circ$,14
F$_{6}$FeNaSr,5.4053(3),$\AA$,90,°,,,orthorhombic,10.3823(8),$\AA$,90,°,9.3103(5),$\AA$,90,°,19
LaNiO$_{3}$,5.4535(1),$\AA$,120,°,,,trigonal,13.1010(3),$\AA$,90,°,5.4535(1),$\AA$,90,°,167
LaNiO$_{3}$,5.4535(1),$\AA$,120,°,,,trigonal,13.1014(3),$\AA$,90,°,5.4535(1),$\AA$,90,°,167
LaNiO$_{3}$,5.4536(1),$\AA$,120,°,,,trigonal,13.1062(3),$\AA$,90,°,5.4536(1),$\AA$,90,°,167
LaNiO$_{3}$,5.4573(1),$\AA$,120,°,,,trigonal,13.1462(3),$\AA$,90,°,5.4573(1),$\AA$,90,°,167
NiO$_{3}$Pr,5.4155(1),$\AA$,90,°,,,orthorhombic,7.6164(1),$\AA$,90,°,5.3884(1),$\AA$,90,°,62
NiO$_{3}$Pr,5.4133(1),$\AA$,90,°,,,orthorhombic,7.6227(1),$\AA$,90,°,5.3828(1),$\AA$,90,°,62
NiO$_{3}$Pr,5.4115(1),$\AA$,90,°,,,orthorhombic,7.6163(1),$\AA$,90,°,5.3763(1),$\AA$,90,°,62
NiO$_{3}$Pr,5.4193(1),$\AA$,90,°,,,orthorhombic,7.6263(1),$\AA$,90,°,5.3801(1),$\AA$,90,°,62
NdNiO$_{3}$,5.3824(3),$\AA$,90,°,,,orthorhombic,7.6066(3),$\AA$,90,°,5.3861(2),$\AA$,90,°,62
NdNiO$_{3}$,5.3836(2),$\AA$,90,°,,,orthorhombic,7.6078(3),$\AA$,90,°,5.3863(2),$\AA$,90,°,62
NdNiO$_{3}$,5.3879(4),$\AA$,90,°,,,orthorhombic,7.6058(4),$\AA$,90,°,5.3797(3),$\AA$,90,°,62
NdNiO$_{3}$,5.3891(3),$\AA$,90,°,,,orthorhombic,7.6101(3),$\AA$,90,°,5.3816(2),$\AA$,90,°,62
Ba$_{3}$F$_{12}$O$_{2}$Ta$_{2}$,5.5063(3),$\AA$,90,°,,,tetragonal,21.0295(15),$\AA$,90,°,5.5063(3),$\AA$,90,°,137
Ba$_{2}$C$_{3}$CeFO$_{9}$,13.365(3),$\AA$,90,°,,,monoclinic,6.638(1),$\AA$,90,°,5.097(1),$\AA$,106.45(2),$^\circ$,11
BaCuF$_{2}$O$_{3}$,4.889(1),$\AA$,90,°,,,orthorhombic,9.588(3),$\AA$,90,°,8.539(3),$\AA$,90,°,63
F$_{2}$Ga$_{4}$H$_{6}$O$_{16}$P$_{3}$,13.455(1),$\AA$,90,°,,,tetragonal,18.902(1),$\AA$,90,°,13.455(1),$\AA$,90,°,88
Ba$_{10}$Cu$_{12}$F$_{47}$Fe,15.447(5),$\AA$,90,°,,,monoclinic,11.809(2),$\AA$,90,°,11.638(8),$\AA$,109.92(2),$^\circ$,12
Ba$_{4}$F$_{12}$Nb$_{2}$O$_{3}$,22.672(2),$\AA$,90,°,,,monoclinic,14.996(1),$\AA$,90,°,13.075(1),$\AA$,114.234(5),$^\circ$,15
F$_{5}$FeK$_{2}$,7.3591(4),$\AA$,90,°,,,orthorhombic,5.7054(2),$\AA$,90,°,23.0897(10),$\AA$,90,°,55
F$_{12}$In$_{2}$Li$_{4}$Zn,4.7496(5),$\AA$,90,°,,,orthorhombic,5.0617(6),$\AA$,90,°,17.606(2),$\AA$,90,°,60
Bi$_{0.5}$O$_{7}$P$_{2}$Ta$_{0.5}$,8.253(2),$\AA$,90,°,,,cubic,8.253(2),$\AA$,90,°,8.253(2),$\AA$,90,°,205
O$_{7}$P$_{1.901}$Ta$_{0.899}$,8.109(1),$\AA$,90,°,,,cubic,8.109(1),$\AA$,90,°,8.109(1),$\AA$,90,°,205
AlBa$_{3}$F$_{9}$,10.063(9),$\AA$,90,°,,,orthorhombic,14.88(1),$\AA$,90,°,5.567(6),$\AA$,90,°,62
Ba$_{2}$F$_{3}$O$_{6}$Y,9.458(3),$\AA$,90,°,,,orthorhombic,11.787(4),$\AA$,90,°,6.966(2),$\AA$,90,°,60
Ba$_{2}$F$_{3}$GdO$_{6}$,9.513(1),$\AA$,90,°,,,orthorhombic,11.864(4),$\AA$,90,°,6.978(1),$\AA$,90,°,60